<?xml version="1.0" encoding="UTF-8"?>
<UPF version="2.0.1">
  <PP_INFO><![CDATA[
Generated using FHI98PP, converted with fhi2upf.x v.5.0.2
Author: unknown
Generation date: unknown
Pseudopotential type: SL
Element: Ga
Functional: pz
    Suggested minimum cutoff for wavefunctions:   0. Ry
    Suggested minimum cutoff for charge density:   0. Ry
    The Pseudo was generated with a Scalar-Relativistic Calculation
    L component and cutoff radius for Local Potential:  0   0.0000
    Valence configuration:
    nl pn  l   occ       Rcut    Rcut US       E pseu
    4s  4  0  2.00      0.000      0.000     0.000000
    4p  4  1  1.00      0.000      0.000     0.000000
    Generation configuration: not available.
    Comment:  Info: automatically converted from FHI format
]]></PP_INFO>
  <!--
 END OF HUMAN READABLE SECTION 
-->
  <PP_HEADER generated="Generated using FHI98PP, converted with fhi2upf.x v.5.0.2" author="unknown" date="unknown" comment="Info: automatically converted from FHI format" element="Ga" pseudo_type="SL" relativistic="scalar" is_ultrasoft="false" is_paw="false" is_coulomb="false" has_so="false" has_wfc="false" has_gipaw="false" paw_as_gipaw="false" core_correction="false" functional="pz" z_valence="3.000000000000e0" total_psenergy="0.000000000000e0" wfc_cutoff="0.000000000000e0" rho_cutoff="0.000000000000e0" l_max="1" l_max_rho="0" l_local="0" mesh_size="529" number_of_wfc="2" number_of_proj="1"/>
  <PP_MESH dx="2.439988682354e-2" mesh="529" rmax="7.935879057321e1">
    <PP_R>
      2.016129032258100e-4 2.065927419354800e-4 2.116955826612900e-4 2.169244635530200e-4
      2.222824978027800e-4 2.277728754985100e-4 2.333988655233300e-4 2.391638175017500e-4
      2.450711637940501e-4 2.511244215397600e-4 2.573271947517900e-4 2.636831764621600e-4
      2.701961509207700e-4 2.768699958485199e-4 2.837086847459800e-4 2.907162892592000e-4
      2.978969816039000e-4 3.052550370495200e-4 3.127948364646400e-4 3.205208689253200e-4
      3.284377343877800e-4 3.365501464271500e-4 3.448629350439000e-4 3.533810495394900e-4
      3.621095614631100e-4 3.710536676312501e-4 3.802186932217500e-4 3.896100949443200e-4
      3.992334642894501e-4 4.090945308574000e-4 4.191991657695699e-4 4.295533851640800e-4
      4.401633537776401e-4 4.510353886159400e-4 4.621759627147600e-4 4.735917089938099e-4
      4.852894242059599e-4 4.972760729838500e-4 5.095587919865501e-4 5.221448941486100e-4
      5.350418730340801e-4 5.482574072980300e-4 5.617993652582899e-4 5.756758095801700e-4
      5.898950020768000e-4 6.044654086280899e-4 6.193957042212101e-4 6.346947781154700e-4
      6.503717391349201e-4 6.664359210915599e-4 6.828968883425200e-4 6.997644414845800e-4
      7.170486231892498e-4 7.347597241820201e-4 7.529082893693201e-4 7.715051241167401e-4
      7.905613006824199e-4 8.100881648092798e-4 8.300973424800700e-4 8.506007468393301e-4
      8.716105852862601e-4 8.931393667428301e-4 9.151999091013801e-4 9.378053468561799e-4
      9.609691389235300e-4 9.847050766549401e-4 1.009027292048300e-3 1.033950266161900e-3
      1.059488837736100e-3 1.085658212028200e-3 1.112473969865300e-3 1.139952076921000e-3
      1.168108893220900e-3 1.196961182883500e-3 1.226526124100700e-3 1.256821319366000e-3
      1.287864805954300e-3 1.319675066661400e-3 1.352271040807900e-3 1.385672135515900e-3
      1.419898237263100e-3 1.454969723723500e-3 1.490907475899500e-3 1.527732890554200e-3
      1.565467892950900e-3 1.604134949906800e-3 1.643757083169500e-3 1.684357883123800e-3
      1.725961522836900e-3 1.768592772451000e-3 1.812277013930500e-3 1.857040256174600e-3
      1.902909150502100e-3 1.949911006519500e-3 1.998073808380600e-3 2.047426231447600e-3
      2.097997659364300e-3 2.149818201550600e-3 2.202918711128900e-3 2.257330803293800e-3
      2.313086874135200e-3 2.370220119926300e-3 2.428764556888500e-3 2.488755041443600e-3
      2.550227290967300e-3 2.613217905054200e-3 2.677764387309000e-3 2.743905167675500e-3
      2.811679625317099e-3 2.881128112062500e-3 2.952291976430400e-3 3.025213588248199e-3
      3.099936363878000e-3 3.176504792065700e-3 3.254964460429800e-3 3.335362082602400e-3
      3.417745526042700e-3 3.502163840535899e-3 3.588667287397100e-3 3.677307369395900e-3
      3.768136861419900e-3 3.861209841897000e-3 3.956581724991900e-3 4.054309293599200e-3
      4.154450733151100e-3 4.257065666259900e-3 4.362215188216500e-3 4.469961903365500e-3
      4.580369962378600e-3 4.693505100449300e-3 4.809434676430399e-3 4.928227712938299e-3
      5.049954937447799e-3 5.174688824402800e-3 5.302503638365600e-3 5.433475478233199e-3
      5.567682322545499e-3 5.705204075912400e-3 5.846122616587500e-3 5.990521845217200e-3
      6.138487734794000e-3 6.290108381843400e-3 6.445474058875000e-3 6.604677268129199e-3
      6.767812796652001e-3 6.934977772729301e-3 7.106271723715700e-3 7.281796635291499e-3
      7.461657012183199e-3 7.645959940384101e-3 7.834815150911600e-3 8.028335085139100e-3
      8.226634961742000e-3 8.429832845297101e-3 8.638049716575900e-3 8.851409544575301e-3
      9.070039360326300e-3 9.294069332526400e-3 9.523632845039799e-3 9.758866576312300e-3
      9.999910580747200e-3 1.024690837209200e-2 1.050000700888200e-2 1.075935718200200e-2
      1.102511330439700e-2 1.129743360301600e-2 1.157648021301000e-2 1.186241927427200e-2
      1.215542103034600e-2 1.245565992979600e-2 1.276331473006200e-2 1.307856860389400e-2
      1.340160924841000e-2 1.373262899684600e-2 1.407182493306800e-2 1.441939900891500e-2
      1.477555816443500e-2 1.514051445109700e-2 1.551448515803900e-2 1.589769294144200e-2
      1.629036595709600e-2 1.669273799623600e-2 1.710504862474300e-2 1.752754332577400e-2
      1.796047364592100e-2 1.840409734497500e-2 1.885867854939600e-2 1.932448790956600e-2
      1.980180276093200e-2 2.029090728912800e-2 2.079209269916900e-2 2.130565738883800e-2
      2.183190712634300e-2 2.237115523236300e-2 2.292372276660300e-2 2.348993871893800e-2
      2.407014020529600e-2 2.466467266836600e-2 2.527389008327500e-2 2.589815516833200e-2
      2.653783960099000e-2 2.719332423913400e-2 2.786499934784100e-2 2.855326483173300e-2
      2.925853047307600e-2 2.998121617576100e-2 3.072175221530300e-2 3.148057949502100e-2
      3.225814980854800e-2 3.305492610881900e-2 3.387138278370700e-2 3.470800593846400e-2
      3.556529368514400e-2 3.644375643916700e-2 3.734391722321500e-2 3.826631197862800e-2
      3.921148988450001e-2 4.018001368464700e-2 4.117246002265801e-2 4.218941978521801e-2
      4.323149845391300e-2 4.429931646572400e-2 4.539350958242800e-2 4.651472926911399e-2
      4.766364308206100e-2 4.884093506618800e-2 5.004730616232200e-2 5.128347462453200e-2
      5.255017644775800e-2 5.384816580601700e-2 5.517821550142600e-2 5.654111742431099e-2
      5.793768302469200e-2 5.936874379540200e-2 6.083515176714799e-2 6.233778001579600e-2
      6.387752318218699e-2 6.545529800478700e-2 6.707204386550501e-2 6.872872334898300e-2
      7.042632281570301e-2 7.216585298925100e-2 7.394834955808500e-2 7.577487379217001e-2
      7.764651317483599e-2 7.956438205025500e-2 8.152962228689599e-2 8.354340395738200e-2
      8.560692603512999e-2 8.772141710819701e-2 8.988813611076999e-2 9.210837307270602e-2
      9.438344988760200e-2 9.671472109982599e-2 9.910357471099100e-2 1.015514330063500e-1
      1.040597534016100e-1 1.066300293106300e-1 1.092637910346000e-1 1.119626066731600e-1
      1.147280830579800e-1 1.175618667095200e-1 1.204656448172400e-1 1.234411462442300e-1
      1.264901425564600e-1 1.296144490776000e-1 1.328159259698200e-1 1.360964793412700e-1
      1.394580623810000e-1 1.429026765218200e-1 1.464323726319000e-1 1.500492522359100e-1
      1.537554687661400e-1 1.575532288446600e-1 1.614447935971300e-1 1.654324799989700e-1
      1.695186622549500e-1 1.737057732126500e-1 1.779963058110000e-1 1.823928145645300e-1
      1.868979170842700e-1 1.915142956362600e-1 1.962446987384700e-1 2.010919427973100e-1
      2.060589137844100e-1 2.111485689548800e-1 2.163639386080700e-1 2.217081278916900e-1
      2.271843186506100e-1 2.327957713212800e-1 2.385458268729200e-1 2.444379087966800e-1
      2.504755251439500e-1 2.566622706150100e-1 2.630018286992000e-1 2.694979738680700e-1
      2.761545738226100e-1 2.829755917960300e-1 2.899650889133900e-1 2.971272266095500e-1
      3.044662691068100e-1 3.119865859537500e-1 3.196926546268100e-1 3.275890631960900e-1
      3.356805130570300e-1 3.439718217295400e-1 3.524679257262600e-1 3.611738834917000e-1
      3.700948784139400e-1 3.792362219107700e-1 3.886033565919600e-1 3.982018594997800e-1
      4.080374454294300e-1 4.181159703315400e-1 4.284434347987200e-1 4.390259876382500e-1
      4.498699295329200e-1 4.609817167923800e-1 4.723679651971501e-1 4.840354539375200e-1
      4.959911296497800e-1 5.082421105521300e-1 5.207956906827700e-1 5.336593442426300e-1
      5.468407300454200e-1 5.603476960775399e-1 5.741882841706600e-1 5.883707347896800e-1
      6.029034919389799e-1 6.177952081898700e-1 6.330547498321600e-1 6.486912021530200e-1
      6.647138748462000e-1 6.811323075549000e-1 6.979562755514999e-1 7.151957955576300e-1
      7.328611317079000e-1 7.509628016610800e-1 7.695115828621100e-1 7.885185189588100e-1
      8.079949263770899e-1 8.279524010586000e-1 8.484028253647500e-1 8.693583751512600e-1
      8.908315270175001e-1 9.128350657348300e-1 9.353820918584800e-1 9.584860295273801e-1
      9.821606344567099e-1 1.006420002127800e0 1.031278576180300e0 1.056751157012000e0
      1.082852910590200e0 1.109599377481800e0 1.137006482105600e0 1.165090542213600e0
      1.193868278606300e0 1.223356825087800e0 1.253573738667500e0 1.284537010012600e0
      1.316265074159900e0 1.348776821491700e0 1.382091608982500e0 1.416229271724400e0
      1.451210134736000e0 1.487055025063900e0 1.523785284183000e0 1.561422780702300e0
      1.599989923385700e0 1.639509674493300e0 1.680005563453300e0 1.721501700870600e0
      1.764022792882100e0 1.807594155866300e0 1.852241731516200e0 1.897992102284600e0
      1.944872507211100e0 1.992910858139200e0 2.042135756335200e0 2.092576509516700e0
      2.144263149301700e0 2.197226449089500e0 2.251497942382000e0 2.307109941558800e0
      2.364095557115300e0 2.422488717376100e0 2.482324188695300e0 2.543637596156100e0
      2.606465444781100e0 2.670845141267200e0 2.736815016256500e0 2.804414347158000e0
      2.873683381532800e0 2.944663361056700e0 3.017396546074800e0 3.091926240762900e0
      3.168296818909700e0 3.246553750336800e0 3.326743627970100e0 3.408914195580900e0
      3.493114376211800e0 3.579394301304200e0 3.667805340546400e0 3.758400132457900e0
      3.851232615729600e0 3.946358061338200e0 4.043833105453200e0 4.143715783157900e0
      4.246065563001900e0 4.350943382408100e0 4.458411683953500e0 4.568534452547200e0
      4.681377253525100e0 4.797007271687200e0 4.915493351297800e0 5.036906037074900e0
      5.161317616190700e0 5.288802161310600e0 5.419435574694900e0 5.553295633389900e0
      5.690462035534600e0 5.831016447812300e0 5.975042554073300e0 6.122626105158900e0
      6.273854969956300e0 6.428819187714300e0 6.587611021650800e0 6.750325013885600e0
      6.917058041728500e0 7.087909375359200e0 7.262980736930600e0 7.442376361132800e0
      7.626203057252800e0 7.814570272766900e0 8.007590158504300e0 8.205377635419300e0
      8.408050463014201e0 8.615729309450600e0 8.828537823394100e0 9.046602707631900e0
      9.270053794510400e0 9.499024123234800e0 9.733650019078700e0 9.974071174549900e0
      1.022043073256100e1 1.047287537165600e1 1.073155539333500e1 1.099662481155100e1
      1.126824144439600e1 1.154656700807300e1 1.183176721317200e1 1.212401186333800e1
      1.242347495636200e1 1.273033478778400e1 1.304477405704200e1 1.336697997625100e1
      1.369714438166500e1 1.403546384789200e1 1.438213980493500e1 1.473737865811700e1
      1.510139191097200e1 1.547439629117300e1 1.585661387956500e1 1.624827224239000e1
      1.664960456677700e1 1.706084979957700e1 1.748225278962600e1 1.791406443353000e1
      1.835654182503800e1 1.880994840811700e1 1.927455413379700e1 1.975063562090200e1
      2.023847632073800e1 2.073836668586100e1 2.125060434300100e1 2.177549427027300e1
      2.231334897874900e1 2.286448869852400e1 2.342924156937800e1 2.400794383614100e1
      2.460094004889400e1 2.520858326810200e1 2.583123527482400e1 2.646926678611200e1
      2.712305767572900e1 2.779299720032000e1 2.847948423116700e1 2.918292749167700e1
      2.990374580072200e1 3.064236832200000e1 3.139923481955300e1 3.217479591959600e1
      3.296951337881000e1 3.378386035926701e1 3.461832171014001e1 3.547339425638100e1
      3.634958709451300e1 3.724742189574800e1 3.816743321657301e1 3.911016881702200e1
      4.007618998680300e1 4.106607187947700e1 4.208040385490000e1 4.311978983011600e1
      4.418484863892000e1 4.527621440030100e1 4.639453689598800e1 4.754048195731900e1
      4.871473186166501e1 4.991798573864800e1 5.115095998639300e1 5.241438869805701e1
      5.370902409889901e1 5.503563699414201e1 5.639501722789700e1 5.778797415342600e1
      5.921533711501600e1 6.067795594175600e1 6.217670145351800e1 6.371246597942001e1
      6.528616388911100e1 6.689873213717201e1 6.855113082096101e1 7.024434375223800e1
      7.197937904291901e1 7.375726970527900e1 7.557907426699900e1 7.744587740139401e1
      7.935879057320800e1
      </PP_R>
    <PP_RAB>
      4.919332020874102e-6 5.040839521789509e-6 5.165348257977800e-6 5.292932359949758e-6
      5.423667789240526e-6 5.557632383634799e-6 5.694905903510746e-6 5.835570079327308e-6
      5.979708660286859e-6 6.127407464195869e-6 6.278754428561456e-6 6.433839662946944e-6
      6.592755502621604e-6 6.755596563536526e-6 6.922459798655916e-6 7.093444555682580e-6
      7.268652636207884e-6 7.448188356322307e-6 7.632158608723392e-6 7.820672926358946e-6
      8.013843547640121e-6 8.211785483266633e-6 8.414616584703305e-6 8.622457614345615e-6
      8.835432317419817e-6 9.053667495660115e-6 9.277293082803119e-6 9.506442221948184e-6
      9.741251344830431e-6 9.981860253047758e-6 1.022841220129785e-5 1.048105398266994e-5
      1.073993601604206e-5 1.100521243563812e-5 1.127704118279853e-5 1.155558410001354e-5
      1.184100702728395e-5 1.213347990085793e-5 1.243317685440910e-5 1.274027632271281e-5
      1.305496114788380e-5 1.337741868823673e-5 1.370784092983614e-5 1.404642460080310e-5
      1.439337128844294e-5 1.474888755926731e-5 1.511318508198136e-5 1.548648075350620e-5
      1.586899682811775e-5 1.626096104977244e-5 1.666260678770179e-5 1.707417317535802e-5
      1.749590525278938e-5 1.792805411253317e-5 1.837087704911283e-5 1.882463771222587e-5
      1.928960626371777e-5 1.976605953843169e-5 2.025428120903098e-5 2.075456195489410e-5
      2.126719963517995e-5 2.179249946616888e-5 2.233077420298331e-5 2.288234432579689e-5
      2.344753823064413e-5 2.402669242494101e-5 2.462015172783664e-5 2.522826947551438e-5
      2.585140773155961e-5 2.648993750252958e-5 2.714423895884214e-5 2.781470166112621e-5
      2.850172479215484e-5 2.920571739452212e-5 2.992709861416627e-5 3.066629794993649e-5
      3.142375550929894e-5 3.219992227037932e-5 3.299526035045680e-5 3.381024328111418e-5
      3.464535629015665e-5 3.550109659052356e-5 3.637797367631022e-5 3.727650962611465e-5
      3.819723941387995e-5 3.914071122740310e-5 4.010748679472001e-5 4.109814171854992e-5
      4.211326581899669e-5 4.315346348472660e-5 4.421935403279838e-5 4.531157207740891e-5
      4.643076790772060e-5 4.757760787504125e-5 4.875277478955643e-5 4.995696832685846e-5
      5.119090544453051e-5 5.245532080901045e-5 5.375096723299302e-5 5.507861612364835e-5
      5.643905794190350e-5 5.783310267306756e-5 5.926158030909283e-5 6.072534134272631e-5
      6.222525727389270e-5 6.376222112855803e-5 6.533714799043246e-5 6.695097554579535e-5
      6.860466464177688e-5 7.029919985843041e-5 7.203559009493256e-5 7.381486917027667e-5
      7.563809643878418e-5 7.750635742082004e-5 7.942076444911619e-5 8.138245733100897e-5
      8.339260402708540e-5 8.545240134655307e-5 8.756307565981201e-5 8.972588362861162e-5
      9.194211295423639e-5 9.421308314420674e-5 9.654014629786973e-5 9.892468791142710e-5
      1.013681277028394e-4 1.038719204570987e-4 1.064375568923885e-4 1.090665645476318e-4
      1.117605086919577e-4 1.145209932566478e-4 1.173496617900870e-4 1.202481984363039e-4
      1.232183289376787e-4 1.262618216624403e-4 1.293804886575038e-4 1.325761867273434e-4
      1.358508185395074e-4 1.392063337574338e-4 1.426447302012440e-4 1.461680550372144e-4
      1.497784059966321e-4 1.534779326247486e-4 1.572688375605816e-4 1.611533778483276e-4
      1.651338662811815e-4 1.692126727783266e-4 1.733922257959509e-4 1.776750137731115e-4
      1.820635866133073e-4 1.865605572026554e-4 1.911686029655613e-4 1.958904674588102e-4
      2.007289620050420e-4 2.056869673665683e-4 2.107674354605216e-4 2.159733911163959e-4
      2.213079338769706e-4 2.267742398437328e-4 2.323755635678729e-4 2.381152399879998e-4
      2.439966864157030e-4 2.500234045701793e-4 2.561989826630463e-4 2.625270975348385e-4
      2.690115168439381e-4 2.756561013099930e-4 2.824648070123378e-4 2.894416877455584e-4
      2.965908974328610e-4 3.039166925994639e-4 3.114234349066715e-4 3.191155937488533e-4
      3.269977489144456e-4 3.350745933126390e-4 3.433509357674589e-4 3.518317038809205e-4
      3.605219469667743e-4 3.694268390568648e-4 3.785516819815670e-4 3.879019085264979e-4
      3.974830856671118e-4 4.073009178830828e-4 4.173612505547943e-4 4.276700734434940e-4
      4.382335242575575e-4 4.490578923067131e-4 4.601496222466920e-4 4.715153179161832e-4
      4.831617462687062e-4 4.950958414015671e-4 5.073247086841746e-4 5.198556289886620e-4
      5.326960630246992e-4 5.458536557813927e-4 5.593362410792086e-4 5.731518462338627e-4
      5.873086968358448e-4 6.018152216476703e-4 6.166800576223767e-4 6.319120550456519e-4
      6.475202828052845e-4 6.635140337905638e-4 6.799028304252004e-4 6.966964303367108e-4
      7.139048321660080e-4 7.315382815205087e-4 7.496072770740826e-4 7.681225768178129e-4
      7.870952044652123e-4 8.065364560154999e-4 8.264579064790867e-4 8.468714167691065e-4
      8.677891407633020e-4 8.892235325401543e-4 9.111873537939099e-4 9.336936814326096e-4
      9.567559153639923e-4 9.803877864734790e-4 1.004603364799380e-3 1.029417067909933e-3
      1.054843669487311e-3 1.080898308123631e-3 1.107596496334300e-3 1.134954129793758e-3
      1.162987496799661e-3 1.191713287970615e-3 1.221148606183469e-3 1.251310976756216e-3
      1.282218357882096e-3 1.313889151321769e-3 1.346342213359426e-3 1.379596866029398e-3
      1.413672908620337e-3 1.448590629463262e-3 1.484370818010994e-3 1.521034777215852e-3
      1.558604336213104e-3 1.597101863317567e-3 1.636550279341505e-3 1.676973071241241e-3
      1.718394306100903e-3 1.760838645461599e-3 1.804331360004488e-3 1.848898344596606e-3
      1.894566133708127e-3 1.941361917210731e-3 1.989313556565829e-3 2.038449601412997e-3
      2.088799306567914e-3 2.140392649440125e-3 2.193260347881308e-3 2.247433878473976e-3
      2.302945495272287e-3 2.359828249005519e-3 2.418116006755938e-3 2.477843472122749e-3
      2.539046205884258e-3 2.601760647169605e-3 2.666024135154632e-3 2.731874931293082e-3
      2.799352242095849e-3 2.868496242475809e-3 2.939348099664836e-3 3.011949997726660e-3
      3.086345162670447e-3 3.162577888188296e-3 3.240693562026627e-3 3.320738693008574e-3
      3.402760938725901e-3 3.486809133912658e-3 3.572933319520082e-3 3.661184772512278e-3
      3.751616036393405e-3 3.844280952492233e-3 3.939234692018959e-3 4.036533788911606e-3
      4.136236173497855e-3 4.238401206983319e-3 4.343089716795748e-3 4.450364032800560e-3
      4.560288024410639e-3 4.672927138613790e-3 4.788348438937414e-3 4.906620645379162e-3
      5.027814175320184e-3 5.152001185450473e-3 5.279255614731209e-3 5.409653228415086e-3
      5.543271663156824e-3 5.680190473236795e-3 5.820491177925851e-3 5.964257310020592e-3
      6.111574465577904e-3 6.262530354877788e-3 6.417214854643252e-3 6.575720061552934e-3
      6.738140347073259e-3 6.904572413646005e-3 7.075115352263015e-3 7.249870701463892e-3
      7.428942507790152e-3 7.612437387732612e-3 7.800464591209666e-3 7.993136066612490e-3
      8.190566527457735e-3 8.392873520685974e-3 8.600177496646927e-3 8.812601880814141e-3
      9.030273147270126e-3 9.253320894007839e-3 9.481877920089685e-3 9.716080304715867e-3
      9.956067488242480e-3 1.020198235520215e-2 1.045397131937542e-2 1.071218441096403e-2
      1.097677536591497e-2 1.124790171745299e-2 1.152572488987404e-2 1.181041029465393e-2
      1.210212742893197e-2 1.240104997642660e-2 1.270735591084439e-2 1.302122760184214e-2
      1.334285192360757e-2 1.367242036612063e-2 1.401012914916393e-2 1.435617933914839e-2
      1.471077696882523e-2 1.507413315995515e-2 1.544646424900604e-2 1.582799191595663e-2
      1.621894331628077e-2 1.661955121619288e-2 1.703005413123269e-2 1.745069646827433e-2
      1.788172867104063e-2 1.832340736921520e-2 1.877599553123485e-2 1.923976262085650e-2
      1.971498475759159e-2 2.020194488110400e-2 2.070093291966733e-2 2.121224596278313e-2
      2.173618843806397e-2 2.227307229248409e-2 2.282321717810845e-2 2.338695064240762e-2
      2.396460832327517e-2 2.455653414886030e-2 2.516308054233576e-2 2.578460863173259e-2
      2.642148846493648e-2 2.707409923002095e-2 2.774282948100245e-2 2.842807736918301e-2
      2.913025088020241e-2 2.984976807694157e-2 3.058705734844280e-2 3.134255766494964e-2
      3.211671883927363e-2 3.291000179460491e-2 3.372287883893055e-2 3.455583394625293e-2
      3.540936304472555e-2 3.628397431192835e-2 3.718018847743350e-2 3.809853913282562e-2
      3.903957304940771e-2 4.000385050372743e-2 4.099194561116987e-2 4.200444666776585e-2
      4.304195650045957e-2 4.410509282602122e-2 4.519448861882402e-2 4.631079248770774e-2
      4.745466906215584e-2 4.862679938799074e-2 4.982788133287317e-2 5.105863000179564e-2
      5.231977816283847e-2 5.361207668346175e-2 5.493629497754300e-2 5.629322146348745e-2
      5.768366403363553e-2 5.910845053526760e-2 6.056842926348896e-2 6.206446946629778e-2
      6.359746186211397e-2 6.516831917010836e-2 6.677797665361003e-2 6.842739267695332e-2
      7.011754927607400e-2 7.184945274319401e-2 7.362413422595089e-2 7.544265034133315e-2
      7.730608380476303e-2 7.921554407474142e-2 8.117216801338706e-2 8.317712056331622e-2
      8.523159544123139e-2 8.733681584862905e-2 8.949403520008985e-2 9.170453786953217e-2
      9.396963995490937e-2 9.629069006179755e-2 9.866907010632264e-2 1.011061961379490e-1
      1.036035191825563e-1 1.061625261063667e-1 1.087847405011920e-1 1.114717235915727e-1
      1.142250751642841e-1 1.170464345208427e-1 1.199374814535057e-1 1.228999372454084e-1
      1.259355656953711e-1 1.290461741680466e-1 1.322336146699956e-1 1.354997849523454e-1
      1.388466296406675e-1 1.422761413927919e-1 1.457903620851948e-1 1.493913840286988e-1
      1.530813512142071e-1 1.568624605891999e-1 1.607369633657521e-1 1.647071663608868e-1
      1.687754333699989e-1 1.729441865742380e-1 1.772159079826223e-1 1.815931409097935e-1
      1.860784914902659e-1 1.906746302300744e-1 1.953842935967586e-1 2.002102856485971e-1
      2.051554797041186e-1 2.102228200528090e-1 2.154153237081152e-1 2.207360822037047e-1
      2.261882634341361e-1 2.317751135409591e-1 2.374999588454208e-1 2.433662078289016e-1
      2.493773531622685e-1 2.555369737853947e-1 2.618487370378719e-1 2.683164008427226e-1
      2.749438159435304e-1 2.817349281973458e-1 2.886937809238104e-1 2.958245173126444e-1
      3.031313828902557e-1 3.106187280476416e-1 3.182910106304119e-1 3.261527985929846e-1
      3.342087727182459e-1 3.424637294043836e-1 3.509225835206735e-1 3.595903713336367e-1
      3.684722535055656e-1 3.775735181671529e-1 3.868995840658822e-1 3.964560037923033e-1
      4.062484670859723e-1 4.162828042230106e-1 4.265649894873055e-1 4.371011447276478e-1
      4.478975430024160e-1 4.589606123145894e-1 4.702969394387479e-1 4.819132738428901e-1
      4.938165317068027e-1 5.060138000399795e-1 5.185123409009483e-1 5.313195957211986e-1
      5.444431897355186e-1 5.578909365219834e-1 5.716708426540876e-1 5.857911124676280e-1
      6.002601529455863e-1 6.150865787233499e-1 6.302792172178138e-1 6.458471138830900e-1
      6.617995375960032e-1 6.781459861746364e-1 6.948961920331279e-1 7.120601279763505e-1
      7.296480131373805e-1 7.476703190618777e-1 7.661377759426965e-1 7.850613790084821e-1
      8.044523950699910e-1 8.243223692282294e-1 8.446831317481449e-1 8.655468051023371e-1
      8.869258111883500e-1 9.088328787247150e-1 9.312810508292163e-1 9.542836927846892e-1
      9.778544999964847e-1 1.002007506146397e0 1.026757091548211e0 1.052117991709451e0
      1.078105306104678e0 1.104734507165456e0 1.132021449492431e0 1.159982379294897e0
      1.188633944063486e0 1.217993202481851e0 1.248077634583163e0 1.278905152157369e0
      1.310494109415656e0 1.342863313918228e0 1.376032037772000e0 1.410020029104967e0
      1.444847523823869e0 1.480535257662297e0 1.517104478526571e0 1.554576959146180e0
      1.592975010037074e0 1.632321492784989e0 1.672639833656799e0 1.713954037548103e0
      1.756288702275560e0 1.799669033221763e0 1.844120858342331e0 1.889670643543390e0
      1.936345508438901e0
      </PP_RAB>
  </PP_MESH>
  <PP_LOCAL columns="4">
    -2.238876021188894e-1 -2.238876990950474e-1 -2.238877937961766e-1 -2.238878862802360e-1
    -2.238879766039695e-1 -2.238880648228720e-1 -2.238881509913196e-1 -2.238882351625386e-1
    -2.238883173886542e-1 -2.238883977207613e-1 -2.238884762088943e-1 -2.238885529021384e-1
    -2.238886278486014e-1 -2.238887010955051e-1 -2.238887726891188e-1 -2.238888426749722e-1
    -2.238889110976894e-1 -2.238889780011240e-1 -2.238890434284342e-1 -2.238891074220193e-1
    -2.238891700235965e-1 -2.238892312742589e-1 -2.238892912144747e-1 -2.238893498841460e-1
    -2.238894073225906e-1 -2.238894635686432e-1 -2.238895186606580e-1 -2.238895726365334e-1
    -2.238896255337965e-1 -2.238896773895302e-1 -2.238897282405604e-1 -2.238897781233456e-1
    -2.238898270741272e-1 -2.238898751288619e-1 -2.238899223233553e-1 -2.238899686932575e-1
    -2.238900142740802e-1 -2.238900591013161e-1 -2.238901032103791e-1 -2.238901466366688e-1
    -2.238901894157142e-1 -2.238902315830825e-1 -2.238902731744882e-1 -2.238903142258257e-1
    -2.238903547732846e-1 -2.238903948532671e-1 -2.238904345025685e-1 -2.238904737583216e-1
    -2.238905126581228e-1 -2.238905512401026e-1 -2.238905895428997e-1 -2.238906276057974e-1
    -2.238906654687463e-1 -2.238907031724681e-1 -2.238907407584665e-1 -2.238907782691607e-1
    -2.238908157478840e-1 -2.238908532390480e-1 -2.238908907881314e-1 -2.238909284418540e-1
    -2.238909662481774e-1 -2.238910042564506e-1 -2.238910425174828e-1 -2.238910810836420e-1
    -2.238911200089412e-1 -2.238911593491920e-1 -2.238911991620647e-1 -2.238912395072383e-1
    -2.238912804464771e-1 -2.238913220437976e-1 -2.238913643656439e-1 -2.238914074808730e-1
    -2.238914514611106e-1 -2.238914963807178e-1 -2.238915423170683e-1 -2.238915893506190e-1
    -2.238916375651713e-1 -2.238916870480669e-1 -2.238917378902365e-1 -2.238917901865838e-1
    -2.238918440360437e-1 -2.238918995419175e-1 -2.238919568120233e-1 -2.238920159590061e-1
    -2.238920771004842e-1 -2.238921403594567e-1 -2.238922058645099e-1 -2.238922737500464e-1
    -2.238923441567555e-1 -2.238924172317676e-1 -2.238924931290942e-1 -2.238925720099513e-1
    -2.238926540431536e-1 -2.238927394054343e-1 -2.238928282819366e-1 -2.238929208666560e-1
    -2.238930173627763e-1 -2.238931179832799e-1 -2.238932229513349e-1 -2.238933325009006e-1
    -2.238934468772128e-1 -2.238935663374120e-1 -2.238936911511158e-1 -2.238938216010575e-1
    -2.238939579837145e-1 -2.238941006101068e-1 -2.238942498064314e-1 -2.238944059148708e-1
    -2.238945692943836e-1 -2.238947403215959e-1 -2.238949193916584e-1 -2.238951069191533e-1
    -2.238953033391526e-1 -2.238955091081526e-1 -2.238957247052484e-1 -2.238959506332116e-1
    -2.238961874196763e-1 -2.238964356184573e-1 -2.238966958107844e-1 -2.238969686067203e-1
    -2.238972546466431e-1 -2.238975546026824e-1 -2.238978691804126e-1 -2.238981991204501e-1
    -2.238985452002799e-1 -2.238989082360388e-1 -2.238992890845419e-1 -2.238996886452584e-1
    -2.239001078624266e-1 -2.239005477274131e-1 -2.239010092809868e-1 -2.239014936157953e-1
    -2.239020018790325e-1 -2.239025352751283e-1 -2.239030950685887e-1 -2.239036825871185e-1
    -2.239042992246765e-1 -2.239049464448755e-1 -2.239056257844187e-1 -2.239063388568659e-1
    -2.239070873563232e-1 -2.239078730616884e-1 -2.239086978407502e-1 -2.239095636547133e-1
    -2.239104725628682e-1 -2.239114267275420e-1 -2.239124284192676e-1 -2.239134800221710e-1
    -2.239145840397369e-1 -2.239157431007715e-1 -2.239169599656870e-1 -2.239182375331682e-1
    -2.239195788470270e-1 -2.239209871036097e-1 -2.239224656593825e-1 -2.239240180390248e-1
    -2.239256479438578e-1 -2.239273592607604e-1 -2.239291560714836e-1 -2.239310426624976e-1
    -2.239330235352269e-1 -2.239351034169703e-1 -2.239372872722256e-1 -2.239395803146185e-1
    -2.239419880195202e-1 -2.239445161372575e-1 -2.239471707068832e-1 -2.239499580708965e-1
    -2.239528848904444e-1 -2.239559581615006e-1 -2.239591852317562e-1 -2.239625738183859e-1
    -2.239661320268287e-1 -2.239698683703323e-1 -2.239737917907087e-1 -2.239779116800135e-1
    -2.239822379033867e-1 -2.239867808230926e-1 -2.239915513237838e-1 -2.239965608389570e-1
    -2.240018213790119e-1 -2.240073455605699e-1 -2.240131466373344e-1 -2.240192385326367e-1
    -2.240256358736201e-1 -2.240323540272184e-1 -2.240394091379688e-1 -2.240468181678689e-1
    -2.240545989383108e-1 -2.240627701741905e-1 -2.240713515503416e-1 -2.240803637404456e-1
    -2.240898284684785e-1 -2.240997685630437e-1 -2.241102080142851e-1 -2.241211720342649e-1
    -2.241326871200807e-1 -2.241447811208586e-1 -2.241574833079384e-1 -2.241708244491863e-1
    -2.241848368870271e-1 -2.241995546210162e-1 -2.242150133946424e-1 -2.242312507871427e-1
    -2.242483063102034e-1 -2.242662215099539e-1 -2.242850400748893e-1 -2.243048079494939e-1