<?xml version="1.0" encoding="UTF-8"?>
<UPF version="2.0.1">
  <PP_INFO><![CDATA[
Generated using FHI98PP, converted with fhi2upf.x v.5.0.2
Author: unknown
Generation date: unknown
Pseudopotential type: SL
Element: As
Functional: pz
    Suggested minimum cutoff for wavefunctions:   0. Ry
    Suggested minimum cutoff for charge density:   0. Ry
    The Pseudo was generated with a Scalar-Relativistic Calculation
    L component and cutoff radius for Local Potential:  0   0.0000
    Valence configuration:
    nl pn  l   occ       Rcut    Rcut US       E pseu
    4s  4  0  1.00      0.000      0.000     0.000000
    4p  4  1  4.00      0.000      0.000     0.000000
    Generation configuration: not available.
    Comment:  Info: automatically converted from FHI format
]]></PP_INFO>
  <!--
 END OF HUMAN READABLE SECTION 
-->
  <PP_HEADER generated="Generated using FHI98PP, converted with fhi2upf.x v.5.0.2" author="unknown" date="unknown" comment="Info: automatically converted from FHI format" element="As" pseudo_type="SL" relativistic="scalar" is_ultrasoft="false" is_paw="false" is_coulomb="false" has_so="false" has_wfc="false" has_gipaw="false" paw_as_gipaw="false" core_correction="false" functional="pz" z_valence="5.000000000000e0" total_psenergy="0.000000000000e0" wfc_cutoff="0.000000000000e0" rho_cutoff="0.000000000000e0" l_max="1" l_max_rho="0" l_local="0" mesh_size="531" number_of_wfc="2" number_of_proj="1"/>
  <PP_MESH dx="2.439988682354e-2" mesh="531" rmax="7.827737744830e1">
    <PP_R>
      1.893939393939400e-4 1.940719696969700e-4 1.988655473484799e-4 2.037775263679900e-4
      2.088108312692800e-4 2.139684588016300e-4 2.192534797340300e-4 2.246690406834600e-4
      2.302183659883500e-4 2.359047596282600e-4 2.417316071910800e-4 2.477023778887000e-4
      2.538206266225500e-4 2.600899961001200e-4 2.665142190037999e-4 2.730971202131900e-4
      2.798426190824599e-4 2.867547317737900e-4 2.938375736486000e-4 3.010953617177300e-4
      3.085324171521500e-4 3.161531678558100e-4 3.239621511018500e-4 3.319640162340700e-4
      3.401635274350500e-4 3.485655665626899e-4 3.571751360567900e-4 3.659973619173900e-4
      3.750374967567500e-4 3.843009229266400e-4 3.937931557229301e-4 4.035198466692900e-4
      4.134867868820200e-4 4.236999105180100e-4 4.341652983077999e-4 4.448891811760000e-4
      4.558779439510499e-4 4.671381291666400e-4 4.786764409570599e-4 4.904997490487000e-4
      5.026150928501999e-4 5.150296856436000e-4 5.277509188790001e-4 5.407863665753099e-4
      5.541437898297199e-4 5.678311414385099e-4 5.818565706320401e-4 5.962284279266601e-4
      6.109552700964400e-4 6.260458652678301e-4 6.415091981399400e-4 6.573544753340000e-4
      6.735911308747500e-4 6.902288318073500e-4 7.072774839530000e-4 7.247472378066300e-4
      7.426484945804600e-4 7.609919123966000e-4 7.797884126327901e-4 7.990491864248201e-4
      8.187857013295101e-4 8.390097081523498e-4 8.597332479437201e-4 8.809686591679300e-4
      9.027285850493699e-4 9.250259811000900e-4 9.478741228332698e-4 9.712866136672499e-4
      9.952773930248300e-4 1.019860744632500e-3 1.045051305025000e-3 1.070864072259100e-3
      1.097314414843900e-3 1.124418080890500e-3 1.152191207488500e-3 1.180650330313500e-3
      1.209812393472200e-3 1.239694759591000e-3 1.270315220152900e-3 1.301692006090700e-3
      1.333843798641100e-3 1.366789740467500e-3 1.400549447057100e-3 1.435143018399400e-3
      1.470591050953900e-3 1.506914649912400e-3 1.544135441765300e-3 1.582275587176900e-3
      1.621357794180100e-3 1.661405331696400e-3 1.702442043389300e-3 1.744492361861000e-3
      1.787581323199000e-3 1.831734581882000e-3 1.876978426054500e-3 1.923339793178000e-3
      1.970846286069500e-3 2.019526189335400e-3 2.069408486212000e-3 2.120522875821400e-3
      2.172899790854200e-3 2.226570415688300e-3 2.281566704955800e-3 2.337921402568200e-3
      2.395668061211700e-3 2.454841062323600e-3 2.515475636563000e-3 2.577607884786099e-3
      2.641274799540300e-3 2.706514287089000e-3 2.773365189980100e-3 2.841867310172600e-3
      2.912061432733800e-3 2.983989350122400e-3 3.057693887070400e-3 3.133218926081000e-3
      3.210609433555200e-3 3.289911486564000e-3 3.371172300282200e-3 3.454440256099100e-3
      3.539764930424800e-3 3.627197124206300e-3 3.716788893174200e-3 3.808593578835600e-3
      3.902665840232800e-3 3.999061686486600e-3 4.097838510142799e-3 4.199055121343300e-3
      4.302771782840501e-3 4.409050245876600e-3 4.517953786949801e-3 4.629547245487499e-3
      4.743897062451000e-3 4.861071319893501e-3 4.981139781494900e-3 5.104173934097799e-3
      5.230247030270100e-3 5.359434131917700e-3 5.491812154976100e-3 5.627459915204001e-3
      5.766458175109500e-3 5.908889692034700e-3 6.054839267428001e-3 6.204393797333500e-3
      6.357642324127600e-3 6.514676089533600e-3 6.675588588945001e-3 6.840475627092001e-3
      7.009435375081101e-3 7.182568428845699e-3 7.359977869038101e-3 7.541769322403401e-3
      7.728051024666700e-3 7.918933884975999e-3 8.114531551934901e-3 8.314960481267700e-3
      8.520340005155001e-3 8.730792403282400e-3 8.946442975643400e-3 9.167420117141800e-3
      9.393855394035199e-3 9.625883622267899e-3 9.863642947737899e-3 1.010727492854700e-2
      1.035692461928200e-2 1.061274065737800e-2 1.087487535161600e-2 1.114348477280100e-2
      1.141872884668900e-2 1.170077144920200e-2 1.198978050399700e-2 1.228592808244600e-2
      1.258939050608200e-2 1.290034845158300e-2 1.321898705833700e-2 1.354549603867800e-2
      1.388006979083300e-2 1.422290751466700e-2 1.457421333027900e-2 1.493419639953700e-2
      1.530307105060500e-2 1.568105690555500e-2 1.606837901112200e-2 1.646526797269700e-2
      1.687196009162300e-2 1.728869750588600e-2 1.771572833428100e-2 1.815330682413800e-2
      1.860169350269400e-2 1.906115533221100e-2 1.953196586891600e-2 2.001440542587900e-2
      2.050876123989800e-2 2.101532764252300e-2 2.153440623529400e-2 2.206630606930500e-2
      2.261134382921700e-2 2.316984402179900e-2 2.374213916913700e-2 2.432857000661500e-2
      2.492948568577800e-2 2.554524398221700e-2 2.617621150857800e-2 2.682276393284000e-2
      2.748528620198099e-2 2.816417277117000e-2 2.885982783861800e-2 2.957266558623100e-2
      3.030311042621100e-2 3.105159725373900e-2 3.181857170590599e-2 3.260449042704200e-2
      3.340982134059000e-2 3.423504392770200e-2 3.508064951271700e-2 3.594714155568100e-2
      3.683503595210600e-2 3.774486134012300e-2 3.867715941522399e-2 3.963248525278000e-2
      4.061140763852400e-2 4.161450940719500e-2 4.264238778955301e-2 4.369565476795500e-2
      4.477493744072400e-2 4.588087839550900e-2 4.701413609187900e-2 4.817538525334800e-2
      4.936531726910600e-2 5.058464060565299e-2 5.183408122861200e-2 5.311438303495900e-2
      5.442630829592200e-2 5.577063811083200e-2 5.714817287216900e-2 5.855973274211200e-2
      6.000615814084201e-2 6.148831024692100e-2 6.300707151001999e-2 6.456334617631700e-2
      6.615806082687201e-2 6.779216492929601e-2 6.946663140304899e-2 7.118245719870499e-2
      7.294066389151300e-2 7.474229828963299e-2 7.658843305738699e-2 7.848016735390501e-2
      8.041862748754600e-2 8.240496758648801e-2 8.444037028587502e-2 8.652604743193599e-2
      8.866324080350500e-2 9.085322285135099e-2 9.309729745577899e-2 9.539680070293700e-2
      9.775310168030000e-2 1.001676032918000e-1 1.026417430931100e-1 1.051769941475100e-1
      1.077748659029500e-1 1.104369050907600e-1 1.131646966465000e-1 1.159598646536700e-1
      1.188240733106100e-1 1.217590279213800e-1 1.247664759110400e-1 1.278482078660500e-1
      1.310060586003400e-1 1.342419082477700e-1 1.375576833814900e-1 1.409553581610100e-1
      1.444369555075800e-1 1.480045483086200e-1 1.516602606518500e-1 1.554062690899500e-1
      1.592448039364700e-1 1.631781505937000e-1 1.672086509133600e-1 1.713387045909200e-1
      1.755707705943200e-1 1.799073686280000e-1 1.843510806331100e-1 1.889045523247500e-1
      1.935704947671700e-1 1.983516859879200e-1 2.032509726318200e-1 2.082712716558200e-1
      2.134155720657200e-1 2.186869366957500e-1 2.240885040321300e-1 2.296234900817300e-1
      2.352951902867400e-1 2.411069814868300e-1 2.470623239295500e-1 2.531647633306100e-1
      2.594179329848800e-1 2.658255559296000e-1 2.723914471610700e-1 2.791195159059400e-1
      2.860137679488200e-1 2.930783080171600e-1 3.003173422251800e-1 3.077351805781400e-1
      3.153362395384200e-1 3.231250446550200e-1 3.311062332580000e-1 3.392845572194700e-1
      3.476648857827900e-1 3.562522084616300e-1 3.650516380106300e-1 3.740684134694900e-1
      3.833079032821900e-1 3.927756084932600e-1 4.024771660230400e-1 4.124183520238100e-1
      4.226050853188000e-1 4.330434309261700e-1 4.437396036700500e-1 4.546999718807000e-1
      4.659310611861500e-1 4.774395583974500e-1 4.892323154898700e-1 5.013163536824700e-1
      5.136988676184300e-1 5.263872296485999e-1 5.393889942209200e-1 5.527119023781800e-1
      5.663638863669201e-1 5.803530743601800e-1 5.946877952968800e-1 6.093765838407101e-1
      6.244281854615799e-1 6.398515616424801e-1 6.556558952150500e-1 6.718505958268600e-1
      6.884453055437801e-1 7.054499045907100e-1 7.228745172341100e-1 7.407295178097900e-1
      7.590255368996900e-1 7.777734676611100e-1 7.969844723123400e-1 8.166699887784599e-1
      8.368417375012800e-1 8.575117284175700e-1 8.786922681094801e-1 9.003959671317801e-1
      9.226357475199400e-1 9.454248504836800e-1 9.687768442906300e-1 9.927056323446099e-1
      1.017225461463500e0 1.042350930361700e0 1.068096998341600e0 1.094478994200600e0
      1.121512625357400e0 1.149213987203700e0 1.177599572687700e0 1.206686282133000e0
      1.236491433301700e0 1.267032771704300e0 1.298328481165400e0 1.330397194650200e0
      1.363258005358000e0 1.396930478090400e0 1.431434660899200e0 1.466791097023400e0
      1.503020837119900e0 1.540145451796700e0 1.578187044456100e0 1.617168264454200e0
      1.657112320586200e0 1.698042994904700e0 1.739984656878800e0 1.782962277903700e0
      1.827001446168000e0 1.872128381888300e0 1.918369952920900e0 1.965753690758100e0
      2.014307806919800e0 2.064061209750700e0 2.115043521631600e0 2.167285096615900e0
      2.220817038502300e0 2.275671219353300e0 2.331880298471300e0 2.389477741843600e0
      2.448497842067100e0 2.508975738766200e0 2.570947439513700e0 2.634449841269700e0
      2.699520752349000e0 2.766198914932000e0 2.834524028130900e0 2.904536771625700e0
      2.976278829884900e0 3.049792916983000e0 3.125122802032500e0 3.202313335242700e0
      3.281410474623200e0 3.362461313346400e0 3.445514107786000e0 3.530618306248400e0
      3.617824578412700e0 3.707184845499500e0 3.798752311183300e0 3.892581493269500e0
      3.988728256153300e0 4.087249844080300e0 4.188204915229100e0 4.291653576635200e0
      4.397657419978100e0 4.506279558251600e0 4.617584663340400e0 4.731639004524900e0
      4.848510487936700e0 4.968268696988700e0 5.090984933804300e0 5.216732261669300e0
      5.345585548532500e0 5.477621511581300e0 5.612918762917300e0 5.751557856361400e0
      5.893621335413500e0 6.039193782398200e0 6.188361868823500e0 6.341214406983400e0
      6.497842402835900e0 6.658339110185900e0 6.822800086207500e0 6.991323248336900e0
      7.164008932570800e0 7.340959953205300e0 7.522281664049400e0 7.708082021151500e0
      7.898471647073900e0 8.093563896756599e0 8.293474925006500e0 8.498323755654200e0
      8.708232352418801e0 8.923325691523599e0 9.143731836104200e0 9.369582012456000e0
      9.601010688163599e0 9.838155652161300e0 1.008115809677000e1 1.033016270176000e1
      1.058531772049300e1 1.084677506819000e1 1.111469041237400e1 1.138922326555900e1
      1.167053708021900e1 1.195879934610000e1 1.225418168994900e1 1.255685997769100e1
      1.286701441914000e1 1.318482967529200e1 1.351049496827200e1 1.384420419398800e1
      1.418615603758000e1 1.453655409170800e1 1.489560697777300e1 1.526352847012400e1
      1.564053762333600e1 1.602685890263300e1 1.642272231752800e1 1.682836355877100e1
      1.724402413867200e1 1.766995153489800e1 1.810639933780900e1 1.855362740145300e1
      1.901190199826900e1 1.948149597762700e1 1.996268892827400e1 2.045576734480200e1
      2.096102479821900e1 2.147876211073500e1 2.200928753487000e1 2.255291693698100e1
      2.310997398532500e1 2.368079034276200e1 2.426570586422900e1 2.486506879907500e1
      2.547923599841200e1 2.610857312757300e1 2.675345488382400e1 2.741426521945400e1
      2.809139757037500e1 2.878525509036300e1 2.949625089109500e1 3.022480828810500e1
      3.097136105282100e1 3.173635367082600e1 3.252024160649500e1 3.332349157417601e1
      3.414658181605800e1 3.499000238691500e1 3.585425544587100e1 3.673985555538400e1
      3.764732998760200e1 3.857721903829600e1 3.953007634854201e1 4.050646923435100e1
      4.150697902444000e1 4.253220140634300e1 4.358274678108000e1 4.465924062657300e1
      4.576232387004900e1 4.689265326963900e1 4.805090180539900e1 4.923775907999300e1
      5.045393172926801e1 5.170014384298100e1 5.297713739590300e1 5.428567268958201e1
      5.562652880501400e1 5.700050406649801e1 5.840841651694101e1 5.985110440490900e1
      6.132942668371101e1 6.284426352279801e1 6.439651683181101e1 6.598711079755700e1
      6.761699243425700e1 6.928713214738301e1 7.099852431142300e1 7.275218786191501e1
      7.454916690210500e1 7.639053132458701e1 7.827737744830400e1
      </PP_R>
    <PP_RAB>
      4.621190686275606e-6 4.735334096226604e-6 4.852296848403277e-6 4.972148580558899e-6
      5.094960650498721e-6 5.220806178566009e-6 5.349760091176583e-6 5.481899165428633e-6
      5.617302074814927e-6 5.756049436062803e-6 5.898223857133599e-6 6.043909986404809e-6
      6.193194563068985e-6 6.346166468776619e-6 6.502916780555573e-6 6.663538825035202e-6
      6.828128234013674e-6 6.996783001393647e-6 7.169603541528007e-6 7.346692749003982e-6
      7.528156059904187e-6 7.714101514583866e-6 7.904639821994124e-6 8.099884425597484e-6
      8.299951570909705e-6 8.504960374711034e-6 8.715032895966434e-6 8.930294208496740e-6
      9.150872475446619e-6 9.376899025590109e-6 9.608508431522234e-6 9.845838589780922e-6
      1.008903080294847e-5 1.033822986378141e-5 1.059358414141669e-5 1.085524566970961e-5
      1.112337023775151e-5 1.139811748262394e-5 1.167965098444486e-5 1.196813836376066e-5
      1.226375138134547e-5 1.256666604046471e-5 1.287706269166426e-5 1.319512614014834e-5
      1.352104575581000e-5 1.385501558597841e-5 1.419723447095205e-5 1.454790616238477e-5
      1.490723944459547e-5 1.527544825887717e-5 1.565275183087130e-5 1.603937480109391e-5
      1.643554735868094e-5 1.684150537844020e-5 1.725749056128788e-5 1.768375057815147e-5
      1.812053921743196e-5 1.856811653610260e-5 1.902674901454418e-5 1.949670971520343e-5
      1.997827844516888e-5 2.047174192276457e-5 2.097739394825703e-5 2.149553557877898e-5
      2.202647530757463e-5 2.257052924767173e-5 2.312802132008941e-5 2.369928344669558e-5
      2.428465574782894e-5 2.488448674479926e-5 2.549913356739768e-5 2.612896216651197e-5
      2.677434753202482e-5 2.743567391606476e-5 2.811333506179167e-5 2.880773443781876e-5
      2.951928547843182e-5 3.024841182974998e-5 3.099554760194485e-5 3.176113762771346e-5
      3.254563772711702e-5 3.334951497897594e-5 3.417324799895793e-5 3.501732722453194e-5
      3.588225520697874e-5 3.676854691058961e-5 3.767673001928273e-5 3.860734525075893e-5
      3.956094667845099e-5 4.053810206140998e-5 4.153939318232679e-5 4.256541619392987e-5
      4.361678197392076e-5 4.469411648867622e-5 4.579806116594688e-5 4.692927327674465e-5
      4.808842632668034e-5 4.927621045694892e-5 5.049333285523594e-5 5.174051817675939e-5
      5.301850897572562e-5 5.432806614742608e-5 5.566996938126747e-5 5.704501762498458e-5
      5.845402956032329e-5 5.989784409046257e-5 6.137732083949716e-5 6.289334066423258e-5
      6.444680617863874e-5 6.603864229125245e-5 6.766979675584642e-5 6.934124073571563e-5
      7.105396938188624e-5 7.280900242562069e-5 7.460738478553295e-5 7.645018718973466e-5
      7.833850681332109e-5 8.027346793160978e-5 8.225622258952223e-5 8.428795128748170e-5
      8.636986368428381e-5 8.850319931728578e-5 9.068922834042286e-5 9.292925228043121e-5
      9.522460481175692e-5 9.757665255060854e-5 9.998679586860808e-5 1.024564697265621e-4
      1.049871445288086e-4 1.075803269986687e-4 1.102375610755370e-4 1.129604288341038e-4
      1.157505514263051e-4 1.186095900465339e-4 1.215392469206840e-4 1.245412663196243e-4
      1.276174355977211e-4 1.307695862569831e-4 1.339995950375314e-4 1.373093850349581e-4
      1.407009268453207e-4 1.441762397384000e-4 1.477373928599395e-4 1.513865064635807e-4
      1.551257531732302e-4 1.589573592766102e-4 1.628836060507405e-4 1.669068311201952e-4
      1.710294298488623e-4 1.752538567661316e-4 1.795826270282529e-4 1.840183179158521e-4
      1.885635703683721e-4 1.932210905564717e-4 1.979936514932164e-4 2.028840946850990e-4
      2.078953318238206e-4 2.130303465198708e-4 2.182921960789097e-4 2.236840133220590e-4
      2.292090084511138e-4 2.348704709598571e-4 2.406717715925651e-4 2.466163643509009e-4
      2.527077885503654e-4 2.589496709275529e-4 2.653457277994820e-4 2.718997672761314e-4
      2.786156915278473e-4 2.854974991085798e-4 2.925492873365547e-4 2.997752547337743e-4
      3.071797035256884e-4 3.147670422027917e-4 3.225417881451983e-4 3.305085703123866e-4
      3.386721319990940e-4 3.470373336594820e-4 3.556091558008645e-4 3.643927019491484e-4
      3.733932016872787e-4 3.826160137689559e-4 3.920666293090440e-4 4.017506750529844e-4
      4.116739167268024e-4 4.218422624699524e-4 4.322617663529507e-4 4.429386319818750e-4
      4.538792161918223e-4 4.650900328317714e-4 4.765777566427013e-4 4.883492272317949e-4
      5.004114531444150e-4 5.127716160370703e-4 5.254370749532027e-4 5.384153707045281e-4
      5.517142303609340e-4 5.653415718508574e-4 5.793055086755629e-4 5.936143547398570e-4
      6.082766293019219e-4 6.233010620456865e-4 6.386965982782207e-4 6.544724042556958e-4
      6.706378726408079e-4 6.872026280950374e-4 7.041765330089875e-4 7.215696933742882e-4
      7.393924648006356e-4 7.576554586812256e-4 7.763695485106431e-4 7.955458763588591e-4
      8.151958595049246e-4 8.353311972346820e-4 8.559638778063972e-4 8.771061855882126e-4
      8.987707083722334e-4 9.209703448690274e-4 9.437183123872915e-4 9.670281547032568e-4
      9.909137501244352e-4 1.015389319752496e-3 1.040469435950389e-3 1.066169031018365e-3
      1.092503406084531e-3 1.119488240214797e-3 1.147139599748126e-3 1.175473947861894e-3
      1.204508154374090e-3 1.234259505787132e-3 1.264745715580059e-3 1.295984934754894e-3
      1.327995762643328e-3 1.360797257980635e-3 1.394408950252743e-3 1.428850851323997e-3
      1.464143467351696e-3 1.500307810995287e-3 1.537365413926872e-3 1.575338339650854e-3
      1.614249196640229e-3 1.654121151797250e-3 1.694977944246626e-3 1.736843899469535e-3
      1.779743943786432e-3 1.823703619197948e-3 1.868749098592139e-3 1.914907201327378e-3
      1.962205409200153e-3 2.010671882807388e-3 2.060335478312748e-3 2.111225764627070e-3
      2.163373041013363e-3 2.216808355126379e-3 2.271563521497992e-3 2.327671140478999e-3
      2.385164617648841e-3 2.444078183704684e-3 2.504446914842251e-3 2.566306753638860e-3
      2.629694530453655e-3 2.694647985356034e-3 2.761205790594285e-3 2.829407573621999e-3
      2.899293940690324e-3 2.970906501025325e-3 3.044287891600697e-3 3.119481802523413e-3
      3.196533003045706e-3 3.275487368220974e-3 3.356391906216034e-3 3.439294786299501e-3
      3.524245367520930e-3 3.611294228098765e-3 3.700493195532977e-3 3.791895377462624e-3
      3.885555193285908e-3 3.981528406560050e-3 4.079872158201977e-3 4.180645000509565e-3
      4.283906932022256e-3 4.389719433243213e-3 4.498145503244282e-3 4.609249697174468e-3
      4.723098164694645e-3 4.839758689362625e-3 4.959300728989842e-3 5.081795456995746e-3
      5.207315804783573e-3 5.335936505161890e-3 5.467734136839265e-3 5.602787170019351e-3
      5.741176013118617e-3 5.882983060642831e-3 6.028292742240593e-3 6.177191572973938e-3
      6.329768204826490e-3 6.486113479485546e-3 6.646320482429056e-3 6.810484598344846e-3
      6.978703567924045e-3 7.151077546051870e-3 7.327709161439256e-3 7.508703577726759e-3
      7.694168556096609e-3 7.884214519432220e-3 8.078954618062220e-3 8.278504797128294e-3
      8.482983865617339e-3 8.692513567098214e-3 8.907218652205485e-3 9.127226952914896e-3
      9.352669458651983e-3 9.583680394280682e-3 9.820397300019332e-3 1.006296111332983e-2
      1.031151625282912e-2 1.056621070427390e-2 1.082719610866955e-2 1.109462785255368e-2
      1.136866516051168e-2 1.164947118997637e-2 1.193721312836886e-2 1.223206229263957e-2
      1.253419423126784e-2 1.284378882878003e-2 1.316103041285089e-2 1.348610786404838e-2
      1.381921472829035e-2 1.416054933207906e-2 1.451031490058149e-2 1.486871967862579e-2
      1.523597705468795e-2 1.561230568793872e-2 1.599792963843083e-2 1.639307850050002e-2
      1.679798753946229e-2 1.721289783168698e-2 1.763805640812987e-2 1.807371640141062e-2
      1.852013719652541e-2 1.897758458527954e-2 1.944633092453596e-2 1.992665529837212e-2
      2.041884368424172e-2 2.092318912324269e-2 2.143999189458669e-2 2.196955969438288e-2
      2.251220781883426e-2 2.306825935195940e-2 2.363804535795288e-2 2.422190507829435e-2
      2.482018613372769e-2 2.543324473123202e-2 2.606144587609262e-2 2.670516358923119e-2
      2.736478112988631e-2 2.804069122379382e-2 2.873329629702320e-2 2.944300871555757e-2
      3.017025103083220e-2 3.091545623129493e-2 3.167906800020801e-2 3.246154097981351e-2
      3.326334104201344e-2 3.408494556575257e-2 3.492684372122585e-2 3.578953676113988e-2
      3.667353831914058e-2 3.757937471562184e-2 3.850758527109823e-2 3.945872262729520e-2
      4.043335307618893e-2 4.143205689717131e-2 4.245542870253031e-2 4.350407779148266e-2
      4.457862851293419e-2 4.567972063720246e-2 4.680800973694036e-2 4.796416757744409e-2
      4.914888251660635e-2 5.036285991476607e-2 5.160682255466220e-2 5.288151107176233e-2
      5.418768439523456e-2 5.552612019979668e-2 5.689761536873102e-2 5.830298646834011e-2
      5.974307023410721e-2 6.121872406889071e-2 6.273082655339168e-2 6.428027796926075e-2
      6.586800083509998e-2 6.749494045572646e-2 6.916206548498484e-2 7.087036850246315e-2
      7.262086660447510e-2 7.441460200960424e-2 7.625264267924196e-2 7.813608295341917e-2
      8.006604420236874e-2 8.204367549416743e-2 8.407015427887199e-2 8.614668708956222e-2
      8.827451026067356e-2 9.045489066411234e-2 9.268912646351499e-2 9.497854788716314e-2
      9.732451801997712e-2 9.972843361507088e-2 1.021917259253636e-1 1.047158615557186e-1
      1.073023433361451e-1 1.099527112165489e-1 1.126685431835973e-1 1.154514562002320e-1
      1.183031071683785e-1 1.212251939154366e-1 1.242194562051474e-1 1.272876767734153e-1
      1.304316823897179e-1 1.336533449447451e-1 1.369545825648789e-1 1.403373607542324e-1
      1.438036935648613e-1 1.473556447959131e-1 1.509953292223737e-1 1.547249138541653e-1
      1.585466192263635e-1 1.624627207212535e-1 1.664755499230687e-1 1.705874960061703e-1
      1.748010071575222e-1 1.791185920343130e-1 1.835428212575588e-1 1.880763289426225e-1
      1.927218142675042e-1 1.974820430799109e-1 2.023598495439850e-1 2.073581378277224e-1
      2.124798838320658e-1 2.177281369627191e-1 2.231060219456975e-1 2.286167406877568e-1
      2.342635741827429e-1 2.400498844650581e-1 2.459791166113527e-1 2.520548007916478e-1
      2.582805543711900e-1 2.646600840641784e-1 2.711971881405565e-1 2.778957586876127e-1
      2.847597839272136e-1 2.917933505902058e-1 2.990006463497919e-1 3.063859623146381e-1
      3.139536955838105e-1 3.217083518647121e-1 3.296545481557775e-1 3.377970154952175e-1
      3.461406017779614e-1 3.546902746418716e-1 3.634511244255212e-1 3.724283671988318e-1
      3.816273478686414e-1 3.910535433610114e-1 4.007125658820276e-1 4.106101662593151e-1
      4.207522373659045e-1 4.311448176288620e-1 4.417940946242708e-1 4.527064087614932e-1
      4.638882570579048e-1 4.753462970072534e-1 4.870873505433233e-1 4.991184081017343e-1
      5.114466327818567e-1 5.240793646115684e-1 5.370241249174703e-1 5.502886208029247e-1
      5.638807497367708e-1 5.778086042552562e-1 5.920804767803801e-1 6.067048645568444e-1
      6.216904747113947e-1 6.370462294367716e-1 6.527812713038585e-1 6.689049687050527e-1
      6.854269214320795e-1 7.023569663914454e-1 7.197051834613149e-1 7.374819014928082e-1
      7.556977044596759e-1 7.743634377598378e-1 7.934902146724959e-1 8.130894229749208e-1
      8.331727317223976e-1 8.537520981959497e-1 8.748397750213702e-1 8.964483174643975e-1
      9.185905909057686e-1 9.412797785011467e-1 9.645293890301275e-1 9.883532649391718e-1
      1.012765590583182e0 1.037780900670570e0 1.063414088917142e0 1.089680416913403e0
      1.116595523211155e0 1.144175432634466e0 1.172436565820535e0 1.201395748996318e0
      1.231070223996507e0 1.261477658529222e0 1.292636156694903e0 1.324564269765272e0
      1.357281007228458e0 1.390805848107005e0 1.425158752555260e0 1.460360173743364e0
      1.496431070034843e0 1.533392917464688e0 1.571267722526063e0 1.610078035272463e0
      1.649846962743701e0 1.690598182723467e0 1.732355957836728e0 1.775145149995292e0
      1.818991235200192e0 1.863920318709637e0 1.909959150581758e0
      </PP_RAB>
  </PP_MESH>
  <PP_LOCAL columns="4">
    -2.347435054407400e0 -2.347435128682800e0 -2.347435201032000e0 -2.347435271494600e0
    -2.347435340108800e0 -2.347435406912000e0 -2.347435471939600e0 -2.347435535226400e0
    -2.347435596805800e0 -2.347435656709400e0 -2.347435714968600e0 -2.347435771612400e0
    -2.347435826669800e0 -2.347435880167400e0 -2.347435932131600e0 -2.347435982587000e0
    -2.347436031557200e0 -2.347436079064400e0 -2.347436125130000e0 -2.347436169773600e0
    -2.347436213014200e0 -2.347436254869000e0 -2.347436295354600e0 -2.347436334485600e0
    -2.347436372275800e0 -2.347436408737800e0 -2.347436443882600e0 -2.347436477720000e0
    -2.347436510258600e0 -2.347436541505600e0 -2.347436571466600e0 -2.347436600146200e0
    -2.347436627547000e0 -2.347436653670600e0 -2.347436678517000e0 -2.347436702084600e0
    -2.347436724370000e0 -2.347436745368800e0 -2.347436765074200e0 -2.347436783478000e0
    -2.347436800570600e0 -2.347436816339800e0 -2.347436830772000e0 -2.347436843851800e0
    -2.347436855561400e0 -2.347436865881000e0 -2.347436874789000e0 -2.347436882261000e0
    -2.347436888270600e0 -2.347436892788800e0 -2.347436895784600e0 -2.347436897223600e0
    -2.347436897069200e0 -2.347436895282000e0 -2.347436891819400e0 -2.347436886635800e0
    -2.347436879682600e0 -2.347436870907600e0 -2.347436860255200e0 -2.347436847666200e0
    -2.347436833077800e0 -2.347436816422600e0 -2.347436797629800e0 -2.347436776624000e0
    -2.347436753325000e0 -2.347436727648200e0 -2.347436699503800e0 -2.347436668797000e0
    -2.347436635427600e0 -2.347436599289600e0 -2.347436560270800e0 -2.347436518253400e0
    -2.347436473112200e0 -2.347436424716200e0 -2.347436372926200e0 -2.347436317596200e0
    -2.347436258572000e0 -2.347436195691200e0 -2.347436128782800e0 -2.347436057666600e0
    -2.347435982153000e0 -2.347435902042400e0 -2.347435817124600e0 -2.347435727178600e0
    -2.347435631971600e0 -2.347435531259200e0 -2.347435424784000e0 -2.347435312275200e0
    -2.347435193448000e0 -2.347435068003600e0 -2.347434935626800e0 -2.347434795987400e0
    -2.347434648737200e0 -2.347434493511200e0 -2.347434329925000e0 -2.347434157575000e0
    -2.347433976037200e0 -2.347433784866000e0 -2.347433583592600e0 -2.347433371725200e0
    -2.347433148747000e0 -2.347432914114400e0 -2.347432667257400e0 -2.347432407576000e0
    -2.347432134441000e0 -2.347431847190600e0 -2.347431545130400e0 -2.347431227530200e0
    -2.347430893624000e0 -2.347430542606400e0 -2.347430173632000e0 -2.347429785812600e0
    -2.347429378215600e0 -2.347428949861400e0 -2.347428499721200e0 -2.347428026714800e0
    -2.347427529707600e0 -2.347427007508200e0 -2.347426458865000e0 -2.347425882464400e0
    -2.347425276926400e0 -2.347424640802200e0 -2.347423972569800e0 -2.347423270632000e0
    -2.347422533310600e0 -2.347421758844000e0 -2.347420945382000e0 -2.347420090982400e0
    -2.347419193605200e0 -2.347418251108600e0 -2.347417261243600e0 -2.347416221648800e0
    -2.347415129844800e0 -2.347413983227800e0 -2.347412779064400e0 -2.347411514484000e0
    -2.347410186473000e0 -2.347408791867200e0 -2.347407327343800e0 -2.347405789414400e0
    -2.347404174416600e0 -2.347402478504400e0 -2.347400697640200e0 -2.347398827584800e0
    -2.347396863887400e0 -2.347394801874600e0 -2.347392636640600e0 -2.347390363034000e0
    -2.347387975646800e0 -2.347385468801000e0 -2.347382836536000e0 -2.347380072593000e0
    -2.347377170402200e0 -2.347374123065400e0 -2.347370923341400e0 -2.347367563627800e0
    -2.347364035943400e0 -2.347360331909800e0 -2.347356442731200e0 -2.347352359174000e0
    -2.347348071545000e0 -2.347343569668800e0 -2.347338842864000e0 -2.347333879917400e0
    -2.347328669059400e0 -2.347323197934600e0 -2.347317453574200e0 -2.347311422365400e0
    -2.347305090019000e0 -2.347298441537600e0 -2.347291461179000e0 -2.347284132421200e0
    -2.347276437922400e0 -2.347268359482400e0 -2.347259877999600e0 -2.347250973426800e0
    -2.347241624725600e0 -2.347231809817200e0 -2.347221505532000e0 -2.347210687556200e0
    -2.347199330376600e0 -2.347187407221600e0 -2.347174890000400e0 -2.347161749239600e0
    -2.347147954015000e0 -2.347133471882600e0 -2.347118268805000e0 -2.347102309074600e0
    -2.347085555233200e0 -2.347067967988400e0 -2.347049506125800e0 -2.347030126417200e0
    -2.347009783524800e0 -2.346988429900600e0 -2.346966015682600e0 -2.346942488585200e0
    -2.346917793784400e0 -2.346891873800200e0 -2.346864668371200e0 -2.346836114326000e0
    -2.346806145447200e0 -2.346774692332000e0 -2.346741682244400e0 -2.346707038963800e0
    -2.346670682625400e0 -2.346632529556000e0 -2.346592492101400e0 -2.346550478449000e0
    -2.346506392442800e0 -2.346460133391000e0 -2.346411595867200e0 -2.346360669504600e0